# vtk DataFile Version 3.0
Written from jax-fem
ASCII
DATASET UNSTRUCTURED_GRID
POINTS 221 double
0.0 0.0 0.0
0.125 0.0 0.0
0.25 0.0 0.0
0.375 0.0 0.0
0.5 0.0 0.0
0.625 0.0 0.0
0.75 0.0 0.0
0.875 0.0 0.0
1.0 0.0 0.0
1.125 0.0 0.0
1.25 0.0 0.0
1.375 0.0 0.0
1.5 0.0 0.0
1.625 0.0 0.0
1.75 0.0 0.0
1.875 0.0 0.0
2.0 0.0 0.0
0.0 0.08333333333333333 0.0
0.125 0.08333333333333333 0.0
0.25 0.08333333333333333 0.0
0.375 0.08333333333333333 0.0
0.5 0.08333333333333333 0.0
0.625 0.08333333333333333 0.0
0.75 0.08333333333333333 0.0
0.875 0.08333333333333333 0.0
1.0 0.08333333333333333 0.0
1.125 0.08333333333333333 0.0
1.25 0.08333333333333333 0.0
1.375 0.08333333333333333 0.0
1.5 0.08333333333333333 0.0
1.625 0.08333333333333333 0.0
1.75 0.08333333333333333 0.0
1.875 0.08333333333333333 0.0
2.0 0.08333333333333333 0.0
0.0 0.16666666666666666 0.0
0.125 0.16666666666666666 0.0
0.25 0.16666666666666666 0.0
0.375 0.16666666666666666 0.0
0.5 0.16666666666666666 0.0
0.625 0.16666666666666666 0.0
0.75 0.16666666666666666 0.0
0.875 0.16666666666666666 0.0
1.0 0.16666666666666666 0.0
1.125 0.16666666666666666 0.0
1.25 0.16666666666666666 0.0
1.375 0.16666666666666666 0.0
1.5 0.16666666666666666 0.0
1.625 0.16666666666666666 0.0
1.75 0.16666666666666666 0.0
1.875 0.16666666666666666 0.0
2.0 0.16666666666666666 0.0
0.0 0.25 0.0
0.125 0.25 0.0
0.25 0.25 0.0
0.375 0.25 0.0
0.5 0.25 0.0
0.625 0.25 0.0
0.75 0.25 0.0
0.875 0.25 0.0
1.0 0.25 0.0
1.125 0.25 0.0
1.25 0.25 0.0
1.375 0.25 0.0
1.5 0.25 0.0
1.625 0.25 0.0
1.75 0.25 0.0
1.875 0.25 0.0
2.0 0.25 0.0
0.0 0.3333333333333333 0.0
0.125 0.3333333333333333 0.0
0.25 0.3333333333333333 0.0
0.375 0.3333333333333333 0.0
0.5 0.3333333333333333 0.0
0.625 0.3333333333333333 0.0
0.75 0.3333333333333333 0.0
0.875 0.3333333333333333 0.0
1.0 0.3333333333333333 0.0
1.125 0.3333333333333333 0.0
1.25 0.3333333333333333 0.0
1.375 0.3333333333333333 0.0
1.5 0.3333333333333333 0.0
1.625 0.3333333333333333 0.0
1.75 0.3333333333333333 0.0
1.875 0.3333333333333333 0.0
2.0 0.3333333333333333 0.0
0.0 0.41666666666666663 0.0
0.125 0.41666666666666663 0.0
0.25 0.41666666666666663 0.0
0.375 0.41666666666666663 0.0
0.5 0.41666666666666663 0.0
0.625 0.41666666666666663 0.0
0.75 0.41666666666666663 0.0
0.875 0.41666666666666663 0.0
1.0 0.41666666666666663 0.0
1.125 0.41666666666666663 0.0
1.25 0.41666666666666663 0.0
1.375 0.41666666666666663 0.0
1.5 0.41666666666666663 0.0
1.625 0.41666666666666663 0.0
1.75 0.41666666666666663 0.0
1.875 0.41666666666666663 0.0
2.0 0.41666666666666663 0.0
0.0 0.5 0.0
0.125 0.5 0.0
0.25 0.5 0.0
0.375 0.5 0.0
0.5 0.5 0.0
0.625 0.5 0.0
0.75 0.5 0.0
0.875 0.5 0.0
1.0 0.5 0.0
1.125 0.5 0.0
1.25 0.5 0.0
1.375 0.5 0.0
1.5 0.5 0.0
1.625 0.5 0.0
1.75 0.5 0.0
1.875 0.5 0.0
2.0 0.5 0.0
0.0 0.5833333333333333 0.0
0.125 0.5833333333333333 0.0
0.25 0.5833333333333333 0.0
0.375 0.5833333333333333 0.0
0.5 0.5833333333333333 0.0
0.625 0.5833333333333333 0.0
0.75 0.5833333333333333 0.0
0.875 0.5833333333333333 0.0
1.0 0.5833333333333333 0.0
1.125 0.5833333333333333 0.0
1.25 0.5833333333333333 0.0
1.375 0.5833333333333333 0.0
1.5 0.5833333333333333 0.0
1.625 0.5833333333333333 0.0
1.75 0.5833333333333333 0.0
1.875 0.5833333333333333 0.0
2.0 0.5833333333333333 0.0
0.0 0.6666666666666666 0.0
0.125 0.6666666666666666 0.0
0.25 0.6666666666666666 0.0
0.375 0.6666666666666666 0.0
0.5 0.6666666666666666 0.0
0.625 0.6666666666666666 0.0
0.75 0.6666666666666666 0.0
0.875 0.6666666666666666 0.0
1.0 0.6666666666666666 0.0
1.125 0.6666666666666666 0.0
1.25 0.6666666666666666 0.0
1.375 0.6666666666666666 0.0
1.5 0.6666666666666666 0.0
1.625 0.6666666666666666 0.0
1.75 0.6666666666666666 0.0
1.875 0.6666666666666666 0.0
2.0 0.6666666666666666 0.0
0.0 0.75 0.0
0.125 0.75 0.0
0.25 0.75 0.0
0.375 0.75 0.0
0.5 0.75 0.0
0.625 0.75 0.0
0.75 0.75 0.0
0.875 0.75 0.0
1.0 0.75 0.0
1.125 0.75 0.0
1.25 0.75 0.0
1.375 0.75 0.0
1.5 0.75 0.0
1.625 0.75 0.0
1.75 0.75 0.0
1.875 0.75 0.0
2.0 0.75 0.0
0.0 0.8333333333333333 0.0
0.125 0.8333333333333333 0.0
0.25 0.8333333333333333 0.0
0.375 0.8333333333333333 0.0
0.5 0.8333333333333333 0.0
0.625 0.8333333333333333 0.0
0.75 0.8333333333333333 0.0
0.875 0.8333333333333333 0.0
1.0 0.8333333333333333 0.0
1.125 0.8333333333333333 0.0
1.25 0.8333333333333333 0.0
1.375 0.8333333333333333 0.0
1.5 0.8333333333333333 0.0
1.625 0.8333333333333333 0.0
1.75 0.8333333333333333 0.0
1.875 0.8333333333333333 0.0
2.0 0.8333333333333333 0.0
0.0 0.9166666666666666 0.0
0.125 0.9166666666666666 0.0
0.25 0.9166666666666666 0.0
0.375 0.9166666666666666 0.0
0.5 0.9166666666666666 0.0
0.625 0.9166666666666666 0.0
0.75 0.9166666666666666 0.0
0.875 0.9166666666666666 0.0
1.0 0.9166666666666666 0.0
1.125 0.9166666666666666 0.0
1.25 0.9166666666666666 0.0
1.375 0.9166666666666666 0.0
1.5 0.9166666666666666 0.0
1.625 0.9166666666666666 0.0
1.75 0.9166666666666666 0.0
1.875 0.9166666666666666 0.0
2.0 0.9166666666666666 0.0
0.0 1.0 0.0
0.125 1.0 0.0
0.25 1.0 0.0
0.375 1.0 0.0
0.5 1.0 0.0
0.625 1.0 0.0
0.75 1.0 0.0
0.875 1.0 0.0
1.0 1.0 0.0
1.125 1.0 0.0
1.25 1.0 0.0
1.375 1.0 0.0
1.5 1.0 0.0
1.625 1.0 0.0
1.75 1.0 0.0
1.875 1.0 0.0
2.0 1.0 0.0
CELLS 384 1536
3 0 1 18
3 0 18 17
3 17 18 35
3 17 35 34
3 34 35 52
3 34 52 51
3 51 52 69
3 51 69 68
3 68 69 86
3 68 86 85
3 85 86 103
3 85 103 102
3 102 103 120
3 102 120 119
3 119 120 137
3 119 137 136
3 136 137 154
3 136 154 153
3 153 154 171
3 153 171 170
3 170 171 188
3 170 188 187
3 187 188 205
3 187 205 204
3 1 2 19
3 1 19 18
3 18 19 36
3 18 36 35
3 35 36 53
3 35 53 52
3 52 53 70
3 52 70 69
3 69 70 87
3 69 87 86
3 86 87 104
3 86 104 103
3 103 104 121
3 103 121 120
3 120 121 138
3 120 138 137
3 137 138 155
3 137 155 154
3 154 155 172
3 154 172 171
3 171 172 189
3 171 189 188
3 188 189 206
3 188 206 205
3 2 3 20
3 2 20 19
3 19 20 37
3 19 37 36
3 36 37 54
3 36 54 53
3 53 54 71
3 53 71 70
3 70 71 88
3 70 88 87
3 87 88 105
3 87 105 104
3 104 105 122
3 104 122 121
3 121 122 139
3 121 139 138
3 138 139 156
3 138 156 155
3 155 156 173
3 155 173 172
3 172 173 190
3 172 190 189
3 189 190 207
3 189 207 206
3 3 4 21
3 3 21 20
3 20 21 38
3 20 38 37
3 37 38 55
3 37 55 54
3 54 55 72
3 54 72 71
3 71 72 89
3 71 89 88
3 88 89 106
3 88 106 105
3 105 106 123
3 105 123 122
3 122 123 140
3 122 140 139
3 139 140 157
3 139 157 156
3 156 157 174
3 156 174 173
3 173 174 191
3 173 191 190
3 190 191 208
3 190 208 207
3 4 5 22
3 4 22 21
3 21 22 39
3 21 39 38
3 38 39 56
3 38 56 55
3 55 56 73
3 55 73 72
3 72 73 90
3 72 90 89
3 89 90 107
3 89 107 106
3 106 107 124
3 106 124 123
3 123 124 141
3 123 141 140
3 140 141 158
3 140 158 157
3 157 158 175
3 157 175 174
3 174 175 192
3 174 192 191
3 191 192 209
3 191 209 208
3 5 6 23
3 5 23 22
3 22 23 40
3 22 40 39
3 39 40 57
3 39 57 56
3 56 57 74
3 56 74 73
3 73 74 91
3 73 91 90
3 90 91 108
3 90 108 107
3 107 108 125
3 107 125 124
3 124 125 142
3 124 142 141
3 141 142 159
3 141 159 158
3 158 159 176
3 158 176 175
3 175 176 193
3 175 193 192
3 192 193 210
3 192 210 209
3 6 7 24
3 6 24 23
3 23 24 41
3 23 41 40
3 40 41 58
3 40 58 57
3 57 58 75
3 57 75 74
3 74 75 92
3 74 92 91
3 91 92 109
3 91 109 108
3 108 109 126
3 108 126 125
3 125 126 143
3 125 143 142
3 142 143 160
3 142 160 159
3 159 160 177
3 159 177 176
3 176 177 194
3 176 194 193
3 193 194 211
3 193 211 210
3 7 8 25
3 7 25 24
3 24 25 42
3 24 42 41
3 41 42 59
3 41 59 58
3 58 59 76
3 58 76 75
3 75 76 93
3 75 93 92
3 92 93 110
3 92 110 109
3 109 110 127
3 109 127 126
3 126 127 144
3 126 144 143
3 143 144 161
3 143 161 160
3 160 161 178
3 160 178 177
3 177 178 195
3 177 195 194
3 194 195 212
3 194 212 211
3 8 9 26
3 8 26 25
3 25 26 43
3 25 43 42
3 42 43 60
3 42 60 59
3 59 60 77
3 59 77 76
3 76 77 94
3 76 94 93
3 93 94 111
3 93 111 110
3 110 111 128
3 110 128 127
3 127 128 145
3 127 145 144
3 144 145 162
3 144 162 161
3 161 162 179
3 161 179 178
3 178 179 196
3 178 196 195
3 195 196 213
3 195 213 212
3 9 10 27
3 9 27 26
3 26 27 44
3 26 44 43
3 43 44 61
3 43 61 60
3 60 61 78
3 60 78 77
3 77 78 95
3 77 95 94
3 94 95 112
3 94 112 111
3 111 112 129
3 111 129 128
3 128 129 146
3 128 146 145
3 145 146 163
3 145 163 162
3 162 163 180
3 162 180 179
3 179 180 197
3 179 197 196
3 196 197 214
3 196 214 213
3 10 11 28
3 10 28 27
3 27 28 45
3 27 45 44
3 44 45 62
3 44 62 61
3 61 62 79
3 61 79 78
3 78 79 96
3 78 96 95
3 95 96 113
3 95 113 112
3 112 113 130
3 112 130 129
3 129 130 147
3 129 147 146
3 146 147 164
3 146 164 163
3 163 164 181
3 163 181 180
3 180 181 198
3 180 198 197
3 197 198 215
3 197 215 214
3 11 12 29
3 11 29 28
3 28 29 46
3 28 46 45
3 45 46 63
3 45 63 62
3 62 63 80
3 62 80 79
3 79 80 97
3 79 97 96
3 96 97 114
3 96 114 113
3 113 114 131
3 113 131 130
3 130 131 148
3 130 148 147
3 147 148 165
3 147 165 164
3 164 165 182
3 164 182 181
3 181 182 199
3 181 199 198
3 198 199 216
3 198 216 215
3 12 13 30
3 12 30 29
3 29 30 47
3 29 47 46
3 46 47 64
3 46 64 63
3 63 64 81
3 63 81 80
3 80 81 98
3 80 98 97
3 97 98 115
3 97 115 114
3 114 115 132
3 114 132 131
3 131 132 149
3 131 149 148
3 148 149 166
3 148 166 165
3 165 166 183
3 165 183 182
3 182 183 200
3 182 200 199
3 199 200 217
3 199 217 216
3 13 14 31
3 13 31 30
3 30 31 48
3 30 48 47
3 47 48 65
3 47 65 64
3 64 65 82
3 64 82 81
3 81 82 99
3 81 99 98
3 98 99 116
3 98 116 115
3 115 116 133
3 115 133 132
3 132 133 150
3 132 150 149
3 149 150 167
3 149 167 166
3 166 167 184
3 166 184 183
3 183 184 201
3 183 201 200
3 200 201 218
3 200 218 217
3 14 15 32
3 14 32 31
3 31 32 49
3 31 49 48
3 48 49 66
3 48 66 65
3 65 66 83
3 65 83 82
3 82 83 100
3 82 100 99
3 99 100 117
3 99 117 116
3 116 117 134
3 116 134 133
3 133 134 151
3 133 151 150
3 150 151 168
3 150 168 167
3 167 168 185
3 167 185 184
3 184 185 202
3 184 202 201
3 201 202 219
3 201 219 218
3 15 16 33
3 15 33 32
3 32 33 50
3 32 50 49
3 49 50 67
3 49 67 66
3 66 67 84
3 66 84 83
3 83 84 101
3 83 101 100
3 100 101 118
3 100 118 117
3 117 118 135
3 117 135 134
3 134 135 152
3 134 152 151
3 151 152 169
3 151 169 168
3 168 169 186
3 168 186 185
3 185 186 203
3 185 203 202
3 202 203 220
3 202 220 219
CELL_TYPES 384
5
5
5
5
5
5
5
5
5
5
5
5
5
5
5
5
5
5
5
5
5
5
5
5
5
5
5
5
5
5
5
5
5
5
5
5
5
5
5
5
5
5
5
5
5
5
5
5
5
5
5
5
5
5
5
5
5
5
5
5
5
5
5
5
5
5
5
5
5
5
5
5
5
5
5
5
5
5
5
5
5
5
5
5
5
5
5
5
5
5
5
5
5
5
5
5
5
5
5
5
5
5
5
5
5
5
5
5
5
5
5
5
5
5
5
5
5
5
5
5
5
5
5
5
5
5
5
5
5
5
5
5
5
5
5
5
5
5
5
5
5
5
5
5
5
5
5
5
5
5
5
5
5
5
5
5
5
5
5
5
5
5
5
5
5
5
5
5
5
5
5
5
5
5
5
5
5
5
5
5
5
5
5
5
5
5
5
5
5
5
5
5
5
5
5
5
5
5
5
5
5
5
5
5
5
5
5
5
5
5
5
5
5
5
5
5
5
5
5
5
5
5
5
5
5
5
5
5
5
5
5
5
5
5
5
5
5
5
5
5
5
5
5
5
5
5
5
5
5
5
5
5
5
5
5
5
5
5
5
5
5
5
5
5
5
5
5
5
5
5
5
5
5
5
5
5
5
5
5
5
5
5
5
5
5
5
5
5
5
5
5
5
5
5
5
5
5
5
5
5
5
5
5
5
5
5
5
5
5
5
5
5
5
5
5
5
5
5
5
5
5
5
5
5
5
5
5
5
5
5
5
5
5
5
5
5
5
5
5
5
5
5
5
5
5
5
5
5
5
5
5
5
5
5
5
5
5
5
5
5
5
5
5
5
5
5
5
5
5
5
5
5
5
5
5
5
5
5
5
5
5
5
5
5
POINT_DATA 221
SCALARS active float
LOOKUP_TABLE default
1.0
1.0
0.0
0.0
0.0
0.0
1.0
0.0
0.0
0.0
1.0
1.0
0.0
0.0
0.0
0.0
1.0
0.0
0.0
1.0
0.0
0.0
0.0
1.0
0.0
0.0
0.0
0.0
0.0
1.0
0.0
0.0
0.0
0.0
0.0
0.0
0.0
0.0
0.0
0.0
0.0
0.0
0.0
0.0
0.0
0.0
0.0
0.0
0.0
0.0
0.0
0.0
0.0
0.0
1.0
0.0
0.0
1.0
0.0
1.0
0.0
0.0
0.0
0.0
1.0
0.0
0.0
1.0
1.0
1.0
0.0
0.0
1.0
0.0
0.0
0.0
1.0
0.0
1.0
0.0
0.0
0.0
0.0
0.0
0.0
0.0
0.0
1.0
0.0
1.0
0.0
1.0
0.0
0.0
0.0
0.0
0.0
1.0
0.0
0.0
0.0
0.0
0.0
0.0
0.0
1.0
0.0
0.0
0.0
0.0
0.0
0.0
0.0
0.0
0.0
1.0
0.0
0.0
0.0
0.0
0.0
0.0
0.0
0.0
0.0
0.0
0.0
1.0
0.0
0.0
0.0
0.0
0.0
1.0
1.0
0.0
1.0
1.0
0.0
0.0
0.0
1.0
0.0
0.0
1.0
0.0
0.0
0.0
0.0
0.0
0.0
0.0
1.0
0.0
0.0
0.0
0.0
0.0
0.0
0.0
0.0
0.0
1.0
0.0
0.0
0.0
1.0
1.0
0.0
0.0
0.0
0.0
0.0
1.0
0.0
0.0
0.0
0.0
0.0
0.0
0.0
0.0
0.0
0.0
0.0
0.0
0.0
0.0
0.0
0.0
0.0
0.0
0.0
0.0
1.0
0.0
1.0
0.0
0.0
0.0
1.0
0.0
0.0
0.0
1.0
0.0
0.0
0.0
0.0
1.0
0.0
1.0
0.0
0.0
1.0
0.0
0.0
0.0
1.0
0.0
1.0
SCALARS active2 float
LOOKUP_TABLE default
1.0
1.0
0.0
0.0
0.0
0.0
1.0
0.0
0.0
0.0
1.0
1.0
0.0
0.0
0.0
0.0
1.0
0.0
0.0
1.0
0.0
0.0
0.0
1.0
0.0
0.0
0.0
0.0
0.0
1.0
0.0
0.0
0.0
0.0
0.0
0.0
0.0
0.0
0.0
0.0
0.0
0.0
0.0
0.0
0.0
0.0
0.0
0.0
0.0
0.0
0.0
0.0
0.0
0.0
1.0
0.0
0.0
1.0
0.0
1.0
0.0
0.0
0.0
0.0
1.0
0.0
0.0
1.0
1.0
1.0
0.0
0.0
1.0
0.0
0.0
0.0
1.0
0.0
1.0
0.0
0.0
0.0
0.0
0.0
0.0
0.0
0.0
1.0
0.0
1.0
0.0
1.0
0.0
0.0
0.0
0.0
0.0
1.0
0.0
0.0
0.0
0.0
0.0
0.0
0.0
1.0
0.0
0.0
0.0
0.0
0.0
0.0
0.0
0.0
0.0
1.0
0.0
0.0
0.0
0.0
0.0
0.0
0.0
0.0
0.0
0.0
0.0
1.0
0.0
0.0
0.0
0.0
0.0
1.0
1.0
0.0
1.0
1.0
0.0
0.0
0.0
1.0
0.0
0.0
1.0
0.0
0.0
0.0
0.0
0.0
0.0
0.0
1.0
0.0
0.0
0.0
0.0
0.0
0.0
0.0
0.0
0.0
1.0
0.0
0.0
0.0
1.0
1.0
0.0
0.0
0.0
0.0
0.0
1.0
0.0
0.0
0.0
0.0
0.0
0.0
0.0
0.0
0.0
0.0
0.0
0.0
0.0
0.0
0.0
0.0
0.0
0.0
0.0
0.0
1.0
0.0
1.0
0.0
0.0
0.0
1.0
0.0
0.0
0.0
1.0
1.0
1.0
1.0
1.0
1.0
1.0
1.0
1.0
1.0
1.0
1.0
1.0
1.0
1.0
1.0
1.0
CELL_DATA 384
SCALARS partition double
LOOKUP_TABLE default
13
13
13
13
13
13
13
13
9
9
9
9
9
9
9
9
8
8
8
8
8
8
8
8
14
13
13
13
13
13
13
13
13
9
9
9
9
9
9
9
9
8
8
8
8
8
8
8
14
14
14
14
14
13
13
13
13
13
12
9
9
9
9
9
9
9
9
8
8
8
8
8
14
14
14
14
14
14
15
13
13
13
12
12
12
11
11
11
11
11
11
11
11
8
8
8
14
14
14
14
14
14
15
15
15
12
12
12
12
12
12
11
11
11
11
11
11
11
11
8
14
14
14
14
14
14
15
15
15
15
12
12
12
12
12
12
10
10
10
11
11
11
11
11
3
3
3
15
15
15
15
15
15
15
15
12
12
12
12
12
10
10
10
10
10
11
11
11
3
3
3
3
3
15
15
15
15
15
15
15
15
12
12
12
10
10
10
10
10
10
10
10
3
3
3
3
3
3
3
3
5
4
4
4
4
4
4
4
4
10
10
10
10
10
10
10
3
3
3
3
3
3
3
3
5
5
5
4
4
4
4
4
4
4
7
7
7
7
7
10
2
2
2
2
2
2
2
2
2
5
5
5
5
4
4
4
4
4
7
7
7
7
7
7
0
2
2
2
2
2
2
2
2
2
5
5
5
5
5
4
4
4
7
7
7
7
7
7
0
0
0
0
0
2
2
2
2
2
2
5
5
5
5
5
5
4
7
7
7
7
7
7
0
0
0
0
0
0
1
1
1
1
1
1
1
5
5
5
5
5
6
6
6
6
6
7
0
0
0
0
0
0
1
1
1
1
1
1
1
1
6
6
6
6
6
6
6
6
6
6
0
0
0
0
0
0
1
1
1
1
1
1
1
1
1
6
6
6
6
6
6
6
6
6
