# vtk DataFile Version 3.0
Written from jax-fem
ASCII
DATASET UNSTRUCTURED_GRID
POINTS 35 double
0.0 0.0 0.0
0.8333333333333333 0.0 0.0
1.6666666666666665 0.0 0.0
2.5 0.0 0.0
3.333333333333333 0.0 0.0
4.166666666666666 0.0 0.0
5.0 0.0 0.0
0.0 0.3 0.0
0.8333333333333333 0.3 0.0
1.6666666666666665 0.3 0.0
2.5 0.3 0.0
3.333333333333333 0.3 0.0
4.166666666666666 0.3 0.0
5.0 0.3 0.0
0.0 0.6 0.0
0.8333333333333333 0.6 0.0
1.6666666666666665 0.6 0.0
2.5 0.6 0.0
3.333333333333333 0.6 0.0
4.166666666666666 0.6 0.0
5.0 0.6 0.0
0.0 0.8999999999999999 0.0
0.8333333333333333 0.8999999999999999 0.0
1.6666666666666665 0.8999999999999999 0.0
2.5 0.8999999999999999 0.0
3.333333333333333 0.8999999999999999 0.0
4.166666666666666 0.8999999999999999 0.0
5.0 0.8999999999999999 0.0
0.0 1.2 0.0
0.8333333333333333 1.2 0.0
1.6666666666666665 1.2 0.0
2.5 1.2 0.0
3.333333333333333 1.2 0.0
4.166666666666666 1.2 0.0
5.0 1.2 0.0
CELLS 48 192
3 0 1 8
3 0 8 7
3 7 8 15
3 7 15 14
3 14 15 22
3 14 22 21
3 21 22 29
3 21 29 28
3 1 2 9
3 1 9 8
3 8 9 16
3 8 16 15
3 15 16 23
3 15 23 22
3 22 23 30
3 22 30 29
3 2 3 10
3 2 10 9
3 9 10 17
3 9 17 16
3 16 17 24
3 16 24 23
3 23 24 31
3 23 31 30
3 3 4 11
3 3 11 10
3 10 11 18
3 10 18 17
3 17 18 25
3 17 25 24
3 24 25 32
3 24 32 31
3 4 5 12
3 4 12 11
3 11 12 19
3 11 19 18
3 18 19 26
3 18 26 25
3 25 26 33
3 25 33 32
3 5 6 13
3 5 13 12
3 12 13 20
3 12 20 19
3 19 20 27
3 19 27 26
3 26 27 34
3 26 34 33
CELL_TYPES 48
5
5
5
5
5
5
5
5
5
5
5
5
5
5
5
5
5
5
5
5
5
5
5
5
5
5
5
5
5
5
5
5
5
5
5
5
5
5
5
5
5
5
5
5
5
5
5
5
POINT_DATA 35
SCALARS active float
LOOKUP_TABLE default
1.0
1.0
0.0
1.0
0.0
0.0
1.0
0.0
0.0
0.0
0.0
0.0
0.0
0.0
0.0
0.0
0.0
0.0
0.0
0.0
0.0
0.0
0.0
0.0
0.0
0.0
0.0
0.0
1.0
0.0
0.0
1.0
0.0
1.0
1.0
VECTORS disp float
0.0 0.0 0.0
0.08333333333333333 -0.16666666666666666 0.0
0.16666666666666666 -0.3333333333333333 0.0
0.25 -0.5 0.0
0.3333333333333333 -0.6666666666666666 0.0
0.41666666666666663 -0.8333333333333333 0.0
0.5 -1.0 0.0
-0.09 0.045 0.0
-0.0066666666666666645 -0.12166666666666666 0.0
0.07666666666666666 -0.28833333333333333 0.0
0.16 -0.455 0.0
0.24333333333333332 -0.6216666666666666 0.0
0.32666666666666666 -0.7883333333333332 0.0
0.41000000000000003 -0.955 0.0
-0.18 0.09 0.0
-0.09666666666666666 -0.07666666666666666 0.0
-0.013333333333333329 -0.24333333333333332 0.0
0.07 -0.41000000000000003 0.0
0.15333333333333332 -0.5766666666666667 0.0
0.23666666666666664 -0.7433333333333333 0.0
0.32 -0.91 0.0
-0.26999999999999996 0.13499999999999998 0.0
-0.18666666666666665 -0.031666666666666676 0.0
-0.1033333333333333 -0.19833333333333333 0.0
-0.019999999999999962 -0.365 0.0
0.06333333333333335 -0.5316666666666666 0.0
0.14666666666666667 -0.6983333333333333 0.0
0.23000000000000004 -0.865 0.0
-0.36 0.18 0.0
-0.27666666666666667 0.013333333333333329 0.0
-0.19333333333333333 -0.15333333333333332 0.0
-0.10999999999999997 -0.32 0.0
-0.026666666666666658 -0.48666666666666664 0.0
0.05666666666666666 -0.6533333333333333 0.0
0.14 -0.8200000000000001 0.0
VECTORS disp_target float
0.0 0.0 0.0
0.08333333333333333 -0.16666666666666666 0.0
0.16666666666666666 -0.3333333333333333 0.0
0.25 -0.5 0.0
0.3333333333333333 -0.6666666666666666 0.0
0.41666666666666663 -0.8333333333333333 0.0
0.5 -1.0 0.0
-0.09 0.045 0.0
-0.0066666666666666645 -0.12166666666666666 0.0
0.07666666666666666 -0.28833333333333333 0.0
0.16 -0.455 0.0
0.24333333333333332 -0.6216666666666666 0.0
0.32666666666666666 -0.7883333333333332 0.0
0.41000000000000003 -0.955 0.0
-0.18 0.09 0.0
-0.09666666666666666 -0.07666666666666666 0.0
-0.013333333333333329 -0.24333333333333332 0.0
0.07 -0.41000000000000003 0.0
0.15333333333333332 -0.5766666666666667 0.0
0.23666666666666664 -0.7433333333333333 0.0
0.32 -0.91 0.0
-0.26999999999999996 0.13499999999999998 0.0
-0.18666666666666665 -0.031666666666666676 0.0
-0.1033333333333333 -0.19833333333333333 0.0
-0.019999999999999962 -0.365 0.0
0.06333333333333335 -0.5316666666666666 0.0
0.14666666666666667 -0.6983333333333333 0.0
0.23000000000000004 -0.865 0.0
-0.36 0.18 0.0
-0.27666666666666667 0.013333333333333329 0.0
-0.19333333333333333 -0.15333333333333332 0.0
-0.10999999999999997 -0.32 0.0
-0.026666666666666658 -0.48666666666666664 0.0
0.05666666666666666 -0.6533333333333333 0.0
0.14 -0.8200000000000001 0.0
CELL_DATA 48
SCALARS partition float
LOOKUP_TABLE default
0
0
0
0
0
0
0
0
1
1
1
0
0
0
0
0
1
1
1
1
1
0
0
0
2
2
2
1
1
1
1
1
2
2
2
2
2
1
1
1
2
2
2
2
2
2
2
2
